<?xml version="1.0" encoding="UTF-8"?>

<!-- generated on 2021-09-14 19:20:04 by Eclipse SUMO GUI Version 1.9.2
<configuration xmlns:xsi="http://www.w3.org/2001/XMLSchema-instance" xsi:noNamespaceSchemaLocation="http://sumo.dlr.de/xsd/sumoConfiguration.xsd">

    <input>
        <net-file value="SUMOFiles/sumomain.net.xml"/>
        <route-files value="SUMOFiles/sumomain.rou.xml"/>
    </input>

    <output>
        <tripinfo-output value="SUMOFiles/CreditPolicyRandomised2Trip"/>
    </output>

    <time>
        <begin value="0"/>
    </time>

    <traci_server>
        <remote-port value="51174"/>
    </traci_server>

    <gui_only>
        <start value="true"/>
    </gui_only>

</configuration>
-->

<tripinfos xmlns:xsi="http://www.w3.org/2001/XMLSchema-instance" xsi:noNamespaceSchemaLocation="http://sumo.dlr.de/xsd/tripinfo_file.xsd">
    <tripinfo id="Car3" depart="0.00" departLane="12N_0" departPos="5.10" departSpeed="0.00" departDelay="0.00" arrival="215.00" arrivalLane="11S_0" arrivalPos="189.60" arrivalSpeed="20.03" duration="215.00" routeLength="2418.25" waitingTime="1.00" waitingCount="1" stopTime="6.00" timeLoss="88.95" rerouteNo="0" devices="tripinfo_Car3" vType="DEFAULT_VEHTYPE" speedFactor="1.05" vaporized=""/>
    <tripinfo id="Car2" depart="0.00" departLane="10S_0" departPos="5.10" departSpeed="0.00" departDelay="0.00" arrival="225.00" arrivalLane="11N_0" arrivalPos="189.60" arrivalSpeed="20.32" duration="225.00" routeLength="2418.25" waitingTime="0.00" waitingCount="0" stopTime="16.00" timeLoss="87.84" rerouteNo="0" devices="tripinfo_Car2" vType="DEFAULT_VEHTYPE" speedFactor="1.03" vaporized=""/>
    <tripinfo id="Car3a" depart="3.00" departLane="12N_0" departPos="5.10" departSpeed="0.00" departDelay="3.00" arrival="228.00" arrivalLane="11S_0" arrivalPos="189.60" arrivalSpeed="16.98" duration="225.00" routeLength="2418.25" waitingTime="0.00" waitingCount="0" stopTime="6.00" timeLoss="78.10" rerouteNo="0" devices="tripinfo_Car3a" vType="DEFAULT_VEHTYPE" speedFactor="0.89" vaporized=""/>
    <tripinfo id="Car2a" depart="3.00" departLane="10S_0" departPos="5.10" departSpeed="0.00" departDelay="3.00" arrival="248.00" arrivalLane="11N_0" arrivalPos="189.60" arrivalSpeed="15.74" duration="245.00" routeLength="2418.25" waitingTime="6.00" waitingCount="2" stopTime="11.00" timeLoss="82.09" rerouteNo="0" devices="tripinfo_Car2a" vType="DEFAULT_VEHTYPE" speedFactor="0.83" vaporized=""/>
    <tripinfo id="Car1" depart="0.00" departLane="21W_0" departPos="5.10" departSpeed="0.00" departDelay="0.00" arrival="250.00" arrivalLane="11E_0" arrivalPos="189.60" arrivalSpeed="19.44" duration="250.00" routeLength="2418.25" waitingTime="22.00" waitingCount="3" stopTime="8.00" timeLoss="117.50" rerouteNo="0" devices="tripinfo_Car1" vType="DEFAULT_VEHTYPE" speedFactor="1.01" vaporized=""/>
    <tripinfo id="Cara" depart="3.00" departLane="01E_0" departPos="5.10" departSpeed="0.00" departDelay="3.00" arrival="267.00" arrivalLane="11W_0" arrivalPos="189.60" arrivalSpeed="18.33" duration="264.00" routeLength="2418.25" waitingTime="23.00" waitingCount="5" stopTime="27.00" timeLoss="102.06" rerouteNo="0" devices="tripinfo_Cara" vType="DEFAULT_VEHTYPE" speedFactor="0.94" vaporized=""/>
    <tripinfo id="Car" depart="0.00" departLane="01E_0" departPos="5.10" departSpeed="0.00" departDelay="0.00" arrival="281.00" arrivalLane="11W_0" arrivalPos="189.60" arrivalSpeed="20.94" duration="281.00" routeLength="2418.25" waitingTime="49.00" waitingCount="6" stopTime="13.00" timeLoss="149.66" rerouteNo="0" devices="tripinfo_Car" vType="DEFAULT_VEHTYPE" speedFactor="1.06" vaporized=""/>
    <tripinfo id="Car1a" depart="3.00" departLane="21W_0" departPos="5.10" departSpeed="0.00" departDelay="3.00" arrival="307.00" arrivalLane="11E_0" arrivalPos="189.60" arrivalSpeed="20.54" duration="304.00" routeLength="2418.25" waitingTime="12.00" waitingCount="2" stopTime="79.00" timeLoss="109.27" rerouteNo="0" devices="tripinfo_Car1a" vType="DEFAULT_VEHTYPE" speedFactor="1.08" vaporized=""/>
</tripinfos>
