<?xml version="1.0" encoding="UTF-8"?>

<!-- generated on 2021-09-14 19:17:30 by Eclipse SUMO GUI Version 1.9.2
<configuration xmlns:xsi="http://www.w3.org/2001/XMLSchema-instance" xsi:noNamespaceSchemaLocation="http://sumo.dlr.de/xsd/sumoConfiguration.xsd">

    <input>
        <net-file value="SUMOFiles/sumomain.net.xml"/>
        <route-files value="SUMOFiles/sumomain.rou.xml"/>
    </input>

    <output>
        <tripinfo-output value="SUMOFiles/CreditPolicyRandom3Trip"/>
    </output>

    <time>
        <begin value="0"/>
    </time>

    <traci_server>
        <remote-port value="50334"/>
    </traci_server>

    <gui_only>
        <start value="true"/>
    </gui_only>

</configuration>
-->

<tripinfos xmlns:xsi="http://www.w3.org/2001/XMLSchema-instance" xsi:noNamespaceSchemaLocation="http://sumo.dlr.de/xsd/tripinfo_file.xsd">
    <tripinfo id="Car2" depart="0.00" departLane="10S_0" departPos="5.10" departSpeed="0.00" departDelay="0.00" arrival="214.00" arrivalLane="11N_0" arrivalPos="189.60" arrivalSpeed="20.32" duration="214.00" routeLength="2418.25" waitingTime="0.00" waitingCount="0" stopTime="6.00" timeLoss="86.58" rerouteNo="0" devices="tripinfo_Car2" vType="DEFAULT_VEHTYPE" speedFactor="1.03" vaporized=""/>
    <tripinfo id="Car3" depart="0.00" departLane="12N_0" departPos="5.10" departSpeed="0.00" departDelay="0.00" arrival="222.00" arrivalLane="11S_0" arrivalPos="189.60" arrivalSpeed="19.11" duration="222.00" routeLength="2418.25" waitingTime="5.00" waitingCount="4" stopTime="10.00" timeLoss="91.40" rerouteNo="0" devices="tripinfo_Car3" vType="DEFAULT_VEHTYPE" speedFactor="1.05" vaporized=""/>
    <tripinfo id="Car1a" depart="3.00" departLane="21W_0" departPos="5.10" departSpeed="0.00" departDelay="3.00" arrival="231.00" arrivalLane="11E_0" arrivalPos="189.60" arrivalSpeed="20.89" duration="228.00" routeLength="2418.25" waitingTime="6.00" waitingCount="1" stopTime="6.00" timeLoss="106.59" rerouteNo="0" devices="tripinfo_Car1a" vType="DEFAULT_VEHTYPE" speedFactor="1.08" vaporized=""/>
    <tripinfo id="Car3a" depart="3.00" departLane="12N_0" departPos="5.10" departSpeed="0.00" departDelay="3.00" arrival="238.00" arrivalLane="11S_0" arrivalPos="189.60" arrivalSpeed="17.38" duration="235.00" routeLength="2418.25" waitingTime="2.00" waitingCount="2" stopTime="9.00" timeLoss="82.34" rerouteNo="0" devices="tripinfo_Car3a" vType="DEFAULT_VEHTYPE" speedFactor="0.89" vaporized=""/>
    <tripinfo id="Car2a" depart="3.00" departLane="10S_0" departPos="5.10" departSpeed="0.00" departDelay="3.00" arrival="256.00" arrivalLane="11N_0" arrivalPos="189.60" arrivalSpeed="15.74" duration="253.00" routeLength="2418.25" waitingTime="3.00" waitingCount="2" stopTime="21.00" timeLoss="80.08" rerouteNo="0" devices="tripinfo_Car2a" vType="DEFAULT_VEHTYPE" speedFactor="0.83" vaporized=""/>
    <tripinfo id="Cara" depart="3.00" departLane="01E_0" departPos="5.10" departSpeed="0.00" departDelay="3.00" arrival="260.00" arrivalLane="11W_0" arrivalPos="189.60" arrivalSpeed="18.57" duration="257.00" routeLength="2418.25" waitingTime="20.00" waitingCount="5" stopTime="15.00" timeLoss="107.96" rerouteNo="0" devices="tripinfo_Cara" vType="DEFAULT_VEHTYPE" speedFactor="0.94" vaporized=""/>
    <tripinfo id="Car1" depart="0.00" departLane="21W_0" departPos="5.10" departSpeed="0.00" departDelay="0.00" arrival="260.00" arrivalLane="11E_0" arrivalPos="189.60" arrivalSpeed="19.09" duration="260.00" routeLength="2418.25" waitingTime="12.00" waitingCount="2" stopTime="39.00" timeLoss="96.47" rerouteNo="0" devices="tripinfo_Car1" vType="DEFAULT_VEHTYPE" speedFactor="1.01" vaporized=""/>
    <tripinfo id="Car" depart="0.00" departLane="01E_0" departPos="5.10" departSpeed="0.00" departDelay="0.00" arrival="264.00" arrivalLane="11W_0" arrivalPos="189.60" arrivalSpeed="20.94" duration="264.00" routeLength="2418.25" waitingTime="21.00" waitingCount="3" stopTime="25.00" timeLoss="120.98" rerouteNo="0" devices="tripinfo_Car" vType="DEFAULT_VEHTYPE" speedFactor="1.06" vaporized=""/>
</tripinfos>
