<?xml version="1.0" encoding="UTF-8"?>

<!-- generated on 2021-09-14 19:20:54 by Eclipse SUMO GUI Version 1.9.2
<configuration xmlns:xsi="http://www.w3.org/2001/XMLSchema-instance" xsi:noNamespaceSchemaLocation="http://sumo.dlr.de/xsd/sumoConfiguration.xsd">

    <input>
        <net-file value="SUMOFiles/sumomain.net.xml"/>
        <route-files value="SUMOFiles/sumomain.rou.xml"/>
    </input>

    <output>
        <tripinfo-output value="SUMOFiles/CreditPolicyRandomised3Trip"/>
    </output>

    <time>
        <begin value="0"/>
    </time>

    <traci_server>
        <remote-port value="51228"/>
    </traci_server>

    <gui_only>
        <start value="true"/>
    </gui_only>

</configuration>
-->

<tripinfos xmlns:xsi="http://www.w3.org/2001/XMLSchema-instance" xsi:noNamespaceSchemaLocation="http://sumo.dlr.de/xsd/tripinfo_file.xsd">
    <tripinfo id="Car3" depart="0.00" departLane="12N_0" departPos="5.10" departSpeed="0.00" departDelay="0.00" arrival="211.00" arrivalLane="11S_0" arrivalPos="189.60" arrivalSpeed="20.03" duration="211.00" routeLength="2418.25" waitingTime="1.00" waitingCount="1" stopTime="6.00" timeLoss="84.89" rerouteNo="0" devices="tripinfo_Car3" vType="DEFAULT_VEHTYPE" speedFactor="1.05" vaporized=""/>
    <tripinfo id="Car2" depart="0.00" departLane="10S_0" departPos="5.10" departSpeed="0.00" departDelay="0.00" arrival="216.00" arrivalLane="11N_0" arrivalPos="189.60" arrivalSpeed="20.45" duration="216.00" routeLength="2418.25" waitingTime="1.00" waitingCount="1" stopTime="9.00" timeLoss="85.09" rerouteNo="0" devices="tripinfo_Car2" vType="DEFAULT_VEHTYPE" speedFactor="1.03" vaporized=""/>
    <tripinfo id="Car1a" depart="3.00" departLane="21W_0" departPos="5.10" departSpeed="0.00" departDelay="3.00" arrival="236.00" arrivalLane="11E_0" arrivalPos="189.60" arrivalSpeed="20.89" duration="233.00" routeLength="2418.25" waitingTime="9.00" waitingCount="4" stopTime="11.00" timeLoss="106.09" rerouteNo="0" devices="tripinfo_Car1a" vType="DEFAULT_VEHTYPE" speedFactor="1.08" vaporized=""/>
    <tripinfo id="Car2a" depart="3.00" departLane="10S_0" departPos="5.10" departSpeed="0.00" departDelay="3.00" arrival="236.00" arrivalLane="11N_0" arrivalPos="189.60" arrivalSpeed="16.02" duration="233.00" routeLength="2418.25" waitingTime="0.00" waitingCount="0" stopTime="6.00" timeLoss="74.87" rerouteNo="0" devices="tripinfo_Car2a" vType="DEFAULT_VEHTYPE" speedFactor="0.83" vaporized=""/>
    <tripinfo id="Car" depart="0.00" departLane="01E_0" departPos="5.10" departSpeed="0.00" departDelay="0.00" arrival="238.00" arrivalLane="11W_0" arrivalPos="189.60" arrivalSpeed="20.81" duration="238.00" routeLength="2418.25" waitingTime="13.00" waitingCount="5" stopTime="17.00" timeLoss="102.87" rerouteNo="0" devices="tripinfo_Car" vType="DEFAULT_VEHTYPE" speedFactor="1.06" vaporized=""/>
    <tripinfo id="Car3a" depart="3.00" departLane="12N_0" departPos="5.10" departSpeed="0.00" departDelay="3.00" arrival="252.00" arrivalLane="11S_0" arrivalPos="189.60" arrivalSpeed="16.98" duration="249.00" routeLength="2418.25" waitingTime="1.00" waitingCount="1" stopTime="26.00" timeLoss="80.29" rerouteNo="0" devices="tripinfo_Car3a" vType="DEFAULT_VEHTYPE" speedFactor="0.89" vaporized=""/>
    <tripinfo id="Car1" depart="0.00" departLane="21W_0" departPos="5.10" departSpeed="0.00" departDelay="0.00" arrival="255.00" arrivalLane="11E_0" arrivalPos="189.60" arrivalSpeed="19.09" duration="255.00" routeLength="2418.25" waitingTime="20.00" waitingCount="4" stopTime="25.00" timeLoss="105.66" rerouteNo="0" devices="tripinfo_Car1" vType="DEFAULT_VEHTYPE" speedFactor="1.01" vaporized=""/>
    <tripinfo id="Cara" depart="3.00" departLane="01E_0" departPos="5.10" departSpeed="0.00" departDelay="3.00" arrival="258.00" arrivalLane="11W_0" arrivalPos="189.60" arrivalSpeed="18.40" duration="255.00" routeLength="2418.25" waitingTime="9.00" waitingCount="6" stopTime="25.00" timeLoss="97.05" rerouteNo="0" devices="tripinfo_Cara" vType="DEFAULT_VEHTYPE" speedFactor="0.94" vaporized=""/>
</tripinfos>
