<?xml version="1.0" encoding="UTF-8"?>

<!-- generated on 2021-09-14 19:19:13 by Eclipse SUMO GUI Version 1.9.2
<configuration xmlns:xsi="http://www.w3.org/2001/XMLSchema-instance" xsi:noNamespaceSchemaLocation="http://sumo.dlr.de/xsd/sumoConfiguration.xsd">

    <input>
        <net-file value="SUMOFiles/sumomain.net.xml"/>
        <route-files value="SUMOFiles/sumomain.rou.xml"/>
    </input>

    <output>
        <tripinfo-output value="SUMOFiles/CreditPolicyRandomised1Trip"/>
    </output>

    <time>
        <begin value="0"/>
    </time>

    <traci_server>
        <remote-port value="51092"/>
    </traci_server>

    <gui_only>
        <start value="true"/>
    </gui_only>

</configuration>
-->

<tripinfos xmlns:xsi="http://www.w3.org/2001/XMLSchema-instance" xsi:noNamespaceSchemaLocation="http://sumo.dlr.de/xsd/tripinfo_file.xsd">
    <tripinfo id="Car2" depart="0.00" departLane="10S_0" departPos="5.10" departSpeed="0.00" departDelay="0.00" arrival="216.00" arrivalLane="11N_0" arrivalPos="189.60" arrivalSpeed="20.45" duration="216.00" routeLength="2418.25" waitingTime="1.00" waitingCount="1" stopTime="6.00" timeLoss="86.76" rerouteNo="0" devices="tripinfo_Car2" vType="DEFAULT_VEHTYPE" speedFactor="1.03" vaporized=""/>
    <tripinfo id="Car3" depart="0.00" departLane="12N_0" departPos="5.10" departSpeed="0.00" departDelay="0.00" arrival="219.00" arrivalLane="11S_0" arrivalPos="189.60" arrivalSpeed="20.03" duration="219.00" routeLength="2418.25" waitingTime="2.00" waitingCount="2" stopTime="11.00" timeLoss="87.52" rerouteNo="0" devices="tripinfo_Car3" vType="DEFAULT_VEHTYPE" speedFactor="1.05" vaporized=""/>
    <tripinfo id="Car1a" depart="3.00" departLane="21W_0" departPos="5.10" departSpeed="0.00" departDelay="3.00" arrival="232.00" arrivalLane="11E_0" arrivalPos="189.60" arrivalSpeed="20.89" duration="229.00" routeLength="2418.25" waitingTime="7.00" waitingCount="3" stopTime="13.00" timeLoss="99.11" rerouteNo="0" devices="tripinfo_Car1a" vType="DEFAULT_VEHTYPE" speedFactor="1.08" vaporized=""/>
    <tripinfo id="Car2a" depart="3.00" departLane="10S_0" departPos="5.10" departSpeed="0.00" departDelay="3.00" arrival="232.00" arrivalLane="11N_0" arrivalPos="189.60" arrivalSpeed="16.56" duration="229.00" routeLength="2418.25" waitingTime="0.00" waitingCount="0" stopTime="6.00" timeLoss="70.69" rerouteNo="0" devices="tripinfo_Car2a" vType="DEFAULT_VEHTYPE" speedFactor="0.83" vaporized=""/>
    <tripinfo id="Car3a" depart="3.00" departLane="12N_0" departPos="5.10" departSpeed="0.00" departDelay="3.00" arrival="242.00" arrivalLane="11S_0" arrivalPos="189.60" arrivalSpeed="16.98" duration="239.00" routeLength="2418.25" waitingTime="6.00" waitingCount="2" stopTime="9.00" timeLoss="89.13" rerouteNo="0" devices="tripinfo_Car3a" vType="DEFAULT_VEHTYPE" speedFactor="0.89" vaporized=""/>
    <tripinfo id="Cara" depart="3.00" departLane="01E_0" departPos="5.10" departSpeed="0.00" departDelay="3.00" arrival="244.00" arrivalLane="11W_0" arrivalPos="189.60" arrivalSpeed="18.19" duration="241.00" routeLength="2418.25" waitingTime="14.00" waitingCount="5" stopTime="9.00" timeLoss="98.84" rerouteNo="0" devices="tripinfo_Cara" vType="DEFAULT_VEHTYPE" speedFactor="0.94" vaporized=""/>
    <tripinfo id="Car1" depart="0.00" departLane="21W_0" departPos="5.10" departSpeed="0.00" departDelay="0.00" arrival="245.00" arrivalLane="11E_0" arrivalPos="189.60" arrivalSpeed="19.09" duration="245.00" routeLength="2418.25" waitingTime="13.00" waitingCount="3" stopTime="20.00" timeLoss="100.14" rerouteNo="0" devices="tripinfo_Car1" vType="DEFAULT_VEHTYPE" speedFactor="1.01" vaporized=""/>
    <tripinfo id="Car" depart="0.00" departLane="01E_0" departPos="5.10" departSpeed="0.00" departDelay="0.00" arrival="252.00" arrivalLane="11W_0" arrivalPos="189.60" arrivalSpeed="20.84" duration="252.00" routeLength="2418.25" waitingTime="20.00" waitingCount="6" stopTime="14.00" timeLoss="118.60" rerouteNo="0" devices="tripinfo_Car" vType="DEFAULT_VEHTYPE" speedFactor="1.06" vaporized=""/>
</tripinfos>
