<?xml version="1.0" encoding="UTF-8"?>

<!-- generated on 2021-09-12 13:25:05 by Eclipse SUMO GUI Version 1.9.2
<configuration xmlns:xsi="http://www.w3.org/2001/XMLSchema-instance" xsi:noNamespaceSchemaLocation="http://sumo.dlr.de/xsd/sumoConfiguration.xsd">

    <input>
        <net-file value="SUMOFiles/sumomain.net.xml"/>
        <route-files value="SUMOFiles/sumomain.rou.xml"/>
        <additional-files value="SUMOFiles/parking.add.xml"/>
    </input>

    <output>
        <tripinfo-output value="SUMOFiles/FirstToReach3Trip75m"/>
    </output>

    <time>
        <begin value="0"/>
        <end value="30"/>
    </time>

    <traci_server>
        <remote-port value="53448"/>
    </traci_server>

    <gui_only>
        <start value="true"/>
    </gui_only>

</configuration>
-->

<tripinfos xmlns:xsi="http://www.w3.org/2001/XMLSchema-instance" xsi:noNamespaceSchemaLocation="http://sumo.dlr.de/xsd/tripinfo_file.xsd">
    <tripinfo id="Car2" depart="0.00" departLane="10S_0" departPos="5.10" departSpeed="0.00" departDelay="0.00" arrival="226.00" arrivalLane="11N_0" arrivalPos="189.60" arrivalSpeed="12.86" duration="226.00" routeLength="2418.25" waitingTime="4.00" waitingCount="3" stopTime="15.00" timeLoss="88.60" rerouteNo="0" devices="tripinfo_Car2" vType="DEFAULT_VEHTYPE" speedFactor="1.03" vaporized=""/>
    <tripinfo id="Car" depart="0.00" departLane="01E_0" departPos="5.10" departSpeed="0.00" departDelay="0.00" arrival="230.00" arrivalLane="11W_0" arrivalPos="189.60" arrivalSpeed="20.77" duration="230.00" routeLength="2418.25" waitingTime="4.00" waitingCount="3" stopTime="17.00" timeLoss="94.43" rerouteNo="0" devices="tripinfo_Car" vType="DEFAULT_VEHTYPE" speedFactor="1.06" vaporized=""/>
    <tripinfo id="Car1a" depart="0.00" departLane="21W_1" departPos="5.10" departSpeed="0.00" departDelay="0.00" arrival="245.00" arrivalLane="11E_0" arrivalPos="189.60" arrivalSpeed="20.24" duration="245.00" routeLength="2418.25" waitingTime="14.00" waitingCount="5" stopTime="34.00" timeLoss="95.35" rerouteNo="0" devices="tripinfo_Car1a" vType="DEFAULT_VEHTYPE" speedFactor="1.08" vaporized=""/>
    <tripinfo id="Car2a" depart="0.00" departLane="10S_1" departPos="5.10" departSpeed="0.00" departDelay="0.00" arrival="253.00" arrivalLane="11N_0" arrivalPos="189.60" arrivalSpeed="15.74" duration="253.00" routeLength="2418.25" waitingTime="9.00" waitingCount="3" stopTime="12.00" timeLoss="89.08" rerouteNo="0" devices="tripinfo_Car2a" vType="DEFAULT_VEHTYPE" speedFactor="0.83" vaporized=""/>
    <tripinfo id="Car1" depart="0.00" departLane="21W_0" departPos="5.10" departSpeed="0.00" departDelay="0.00" arrival="254.00" arrivalLane="11E_0" arrivalPos="189.60" arrivalSpeed="19.64" duration="254.00" routeLength="2418.25" waitingTime="23.00" waitingCount="5" stopTime="16.00" timeLoss="113.99" rerouteNo="0" devices="tripinfo_Car1" vType="DEFAULT_VEHTYPE" speedFactor="1.01" vaporized=""/>
    <tripinfo id="Car3" depart="0.00" departLane="12N_0" departPos="5.10" departSpeed="0.00" departDelay="0.00" arrival="256.00" arrivalLane="11S_0" arrivalPos="189.60" arrivalSpeed="20.79" duration="256.00" routeLength="2418.25" waitingTime="6.00" waitingCount="4" stopTime="42.00" timeLoss="92.94" rerouteNo="0" devices="tripinfo_Car3" vType="DEFAULT_VEHTYPE" speedFactor="1.05" vaporized=""/>
    <tripinfo id="Car3a" depart="0.00" departLane="12N_1" departPos="5.10" departSpeed="0.00" departDelay="0.00" arrival="272.00" arrivalLane="11S_0" arrivalPos="189.60" arrivalSpeed="17.58" duration="272.00" routeLength="2418.25" waitingTime="17.00" waitingCount="5" stopTime="28.00" timeLoss="100.63" rerouteNo="0" devices="tripinfo_Car3a" vType="DEFAULT_VEHTYPE" speedFactor="0.89" vaporized=""/>
    <tripinfo id="Cara" depart="0.00" departLane="01E_1" departPos="5.10" departSpeed="0.00" departDelay="0.00" arrival="286.00" arrivalLane="11W_0" arrivalPos="189.60" arrivalSpeed="18.51" duration="286.00" routeLength="2418.25" waitingTime="15.00" waitingCount="6" stopTime="53.00" timeLoss="99.97" rerouteNo="0" devices="tripinfo_Cara" vType="DEFAULT_VEHTYPE" speedFactor="0.94" vaporized=""/>
</tripinfos>
