<?xml version="1.0" encoding="UTF-8"?>

<!-- generated on 2021-09-12 13:19:23 by Eclipse SUMO GUI Version 1.9.2
<configuration xmlns:xsi="http://www.w3.org/2001/XMLSchema-instance" xsi:noNamespaceSchemaLocation="http://sumo.dlr.de/xsd/sumoConfiguration.xsd">

    <input>
        <net-file value="SUMOFiles/sumomain.net.xml"/>
        <route-files value="SUMOFiles/sumomain.rou.xml"/>
        <additional-files value="SUMOFiles/parking.add.xml"/>
    </input>

    <output>
        <tripinfo-output value="SUMOFiles/FirstToReach2Trip50m"/>
    </output>

    <time>
        <begin value="0"/>
        <end value="30"/>
    </time>

    <traci_server>
        <remote-port value="64645"/>
    </traci_server>

    <gui_only>
        <start value="true"/>
    </gui_only>

</configuration>
-->

<tripinfos xmlns:xsi="http://www.w3.org/2001/XMLSchema-instance" xsi:noNamespaceSchemaLocation="http://sumo.dlr.de/xsd/tripinfo_file.xsd">
    <tripinfo id="Car1a" depart="0.00" departLane="21W_1" departPos="5.10" departSpeed="0.00" departDelay="0.00" arrival="225.00" arrivalLane="11E_0" arrivalPos="189.60" arrivalSpeed="17.49" duration="225.00" routeLength="2418.25" waitingTime="8.00" waitingCount="3" stopTime="14.00" timeLoss="94.62" rerouteNo="0" devices="tripinfo_Car1a" vType="DEFAULT_VEHTYPE" speedFactor="1.08" vaporized=""/>
    <tripinfo id="Car2" depart="0.00" departLane="10S_0" departPos="5.10" departSpeed="0.00" departDelay="0.00" arrival="233.00" arrivalLane="11N_0" arrivalPos="189.60" arrivalSpeed="20.32" duration="233.00" routeLength="2418.25" waitingTime="4.00" waitingCount="3" stopTime="22.00" timeLoss="89.41" rerouteNo="0" devices="tripinfo_Car2" vType="DEFAULT_VEHTYPE" speedFactor="1.03" vaporized=""/>
    <tripinfo id="Car3" depart="0.00" departLane="12N_0" departPos="5.10" departSpeed="0.00" departDelay="0.00" arrival="234.00" arrivalLane="11S_0" arrivalPos="189.60" arrivalSpeed="20.03" duration="234.00" routeLength="2418.25" waitingTime="4.00" waitingCount="2" stopTime="22.00" timeLoss="91.50" rerouteNo="0" devices="tripinfo_Car3" vType="DEFAULT_VEHTYPE" speedFactor="1.05" vaporized=""/>
    <tripinfo id="Car2a" depart="0.00" departLane="10S_1" departPos="5.10" departSpeed="0.00" departDelay="0.00" arrival="248.00" arrivalLane="11N_0" arrivalPos="189.60" arrivalSpeed="16.56" duration="248.00" routeLength="2418.25" waitingTime="8.00" waitingCount="4" stopTime="11.00" timeLoss="84.90" rerouteNo="0" devices="tripinfo_Car2a" vType="DEFAULT_VEHTYPE" speedFactor="0.83" vaporized=""/>
    <tripinfo id="Car3a" depart="0.00" departLane="12N_1" departPos="5.10" departSpeed="0.00" departDelay="0.00" arrival="249.00" arrivalLane="11S_0" arrivalPos="189.60" arrivalSpeed="16.98" duration="249.00" routeLength="2418.25" waitingTime="12.00" waitingCount="5" stopTime="16.00" timeLoss="92.55" rerouteNo="0" devices="tripinfo_Car3a" vType="DEFAULT_VEHTYPE" speedFactor="0.89" vaporized=""/>
    <tripinfo id="Car1" depart="0.00" departLane="21W_0" departPos="5.10" departSpeed="0.00" departDelay="0.00" arrival="252.00" arrivalLane="11E_0" arrivalPos="189.60" arrivalSpeed="19.64" duration="252.00" routeLength="2418.25" waitingTime="15.00" waitingCount="5" stopTime="27.00" timeLoss="100.89" rerouteNo="0" devices="tripinfo_Car1" vType="DEFAULT_VEHTYPE" speedFactor="1.01" vaporized=""/>
    <tripinfo id="Cara" depart="0.00" departLane="01E_1" departPos="5.10" departSpeed="0.00" departDelay="0.00" arrival="267.00" arrivalLane="11W_0" arrivalPos="189.60" arrivalSpeed="18.38" duration="267.00" routeLength="2418.25" waitingTime="5.00" waitingCount="3" stopTime="44.00" timeLoss="88.20" rerouteNo="0" devices="tripinfo_Cara" vType="DEFAULT_VEHTYPE" speedFactor="0.94" vaporized=""/>
    <tripinfo id="Car" depart="0.00" departLane="01E_0" departPos="5.10" departSpeed="0.00" departDelay="0.00" arrival="288.00" arrivalLane="11W_0" arrivalPos="189.60" arrivalSpeed="20.84" duration="288.00" routeLength="2418.25" waitingTime="36.00" waitingCount="5" stopTime="46.00" timeLoss="122.84" rerouteNo="0" devices="tripinfo_Car" vType="DEFAULT_VEHTYPE" speedFactor="1.06" vaporized=""/>
</tripinfos>
