<?xml version="1.0" encoding="UTF-8"?>

<!-- generated on 2021-09-12 13:14:24 by Eclipse SUMO GUI Version 1.9.2
<configuration xmlns:xsi="http://www.w3.org/2001/XMLSchema-instance" xsi:noNamespaceSchemaLocation="http://sumo.dlr.de/xsd/sumoConfiguration.xsd">

    <input>
        <net-file value="SUMOFiles/sumomain.net.xml"/>
        <route-files value="SUMOFiles/sumomain.rou.xml"/>
        <additional-files value="SUMOFiles/parking.add.xml"/>
    </input>

    <output>
        <tripinfo-output value="SUMOFiles/FirstToReach2Trip100m"/>
    </output>

    <time>
        <begin value="0"/>
        <end value="30"/>
    </time>

    <traci_server>
        <remote-port value="51802"/>
    </traci_server>

    <gui_only>
        <start value="true"/>
    </gui_only>

</configuration>
-->

<tripinfos xmlns:xsi="http://www.w3.org/2001/XMLSchema-instance" xsi:noNamespaceSchemaLocation="http://sumo.dlr.de/xsd/tripinfo_file.xsd">
    <tripinfo id="Car1a" depart="0.00" departLane="21W_1" departPos="5.10" departSpeed="0.00" departDelay="0.00" arrival="243.00" arrivalLane="11E_0" arrivalPos="189.60" arrivalSpeed="21.33" duration="243.00" routeLength="2418.25" waitingTime="14.00" waitingCount="4" stopTime="23.00" timeLoss="104.22" rerouteNo="0" devices="tripinfo_Car1a" vType="DEFAULT_VEHTYPE" speedFactor="1.08" vaporized=""/>
    <tripinfo id="Car3" depart="0.00" departLane="12N_0" departPos="5.10" departSpeed="0.00" departDelay="0.00" arrival="246.00" arrivalLane="11S_0" arrivalPos="189.60" arrivalSpeed="20.03" duration="246.00" routeLength="2418.25" waitingTime="4.00" waitingCount="3" stopTime="35.00" timeLoss="91.00" rerouteNo="0" devices="tripinfo_Car3" vType="DEFAULT_VEHTYPE" speedFactor="1.05" vaporized=""/>
    <tripinfo id="Car1" depart="0.00" departLane="21W_0" departPos="5.10" departSpeed="0.00" departDelay="0.00" arrival="257.00" arrivalLane="11E_0" arrivalPos="189.60" arrivalSpeed="19.32" duration="257.00" routeLength="2418.25" waitingTime="21.00" waitingCount="6" stopTime="19.00" timeLoss="113.18" rerouteNo="0" devices="tripinfo_Car1" vType="DEFAULT_VEHTYPE" speedFactor="1.01" vaporized=""/>
    <tripinfo id="Car2a" depart="0.00" departLane="10S_1" departPos="5.10" departSpeed="0.00" departDelay="0.00" arrival="263.00" arrivalLane="11N_0" arrivalPos="189.60" arrivalSpeed="15.98" duration="263.00" routeLength="2418.25" waitingTime="9.00" waitingCount="5" stopTime="25.00" timeLoss="85.76" rerouteNo="0" devices="tripinfo_Car2a" vType="DEFAULT_VEHTYPE" speedFactor="0.83" vaporized=""/>
    <tripinfo id="Car2" depart="0.00" departLane="10S_0" departPos="5.10" departSpeed="0.00" departDelay="0.00" arrival="266.00" arrivalLane="11N_0" arrivalPos="189.60" arrivalSpeed="19.73" duration="266.00" routeLength="2418.25" waitingTime="24.00" waitingCount="4" stopTime="7.00" timeLoss="137.97" rerouteNo="0" devices="tripinfo_Car2" vType="DEFAULT_VEHTYPE" speedFactor="1.03" vaporized=""/>
    <tripinfo id="Cara" depart="0.00" departLane="01E_1" departPos="5.10" departSpeed="0.00" departDelay="0.00" arrival="271.00" arrivalLane="11W_0" arrivalPos="189.60" arrivalSpeed="18.19" duration="271.00" routeLength="2418.25" waitingTime="13.00" waitingCount="6" stopTime="34.00" timeLoss="103.58" rerouteNo="0" devices="tripinfo_Cara" vType="DEFAULT_VEHTYPE" speedFactor="0.94" vaporized=""/>
    <tripinfo id="Car3a" depart="0.00" departLane="12N_1" departPos="5.10" departSpeed="0.00" departDelay="0.00" arrival="276.00" arrivalLane="11S_0" arrivalPos="189.60" arrivalSpeed="16.98" duration="276.00" routeLength="2418.25" waitingTime="25.00" waitingCount="3" stopTime="27.00" timeLoss="107.84" rerouteNo="0" devices="tripinfo_Car3a" vType="DEFAULT_VEHTYPE" speedFactor="0.89" vaporized=""/>
    <tripinfo id="Car" depart="0.00" departLane="01E_0" departPos="5.10" departSpeed="0.00" departDelay="0.00" arrival="287.00" arrivalLane="11W_0" arrivalPos="189.60" arrivalSpeed="20.94" duration="287.00" routeLength="2418.25" waitingTime="28.00" waitingCount="5" stopTime="47.00" timeLoss="122.16" rerouteNo="0" devices="tripinfo_Car" vType="DEFAULT_VEHTYPE" speedFactor="1.06" vaporized=""/>
</tripinfos>
