<?xml version="1.0" encoding="UTF-8"?>

<!-- generated on 2021-09-12 13:39:05 by Eclipse SUMO GUI Version 1.9.2
<configuration xmlns:xsi="http://www.w3.org/2001/XMLSchema-instance" xsi:noNamespaceSchemaLocation="http://sumo.dlr.de/xsd/sumoConfiguration.xsd">

    <input>
        <net-file value="SUMOFiles/sumomain.net.xml"/>
        <route-files value="SUMOFiles/sumomain.rou.xml"/>
        <additional-files value="SUMOFiles/parking.add.xml"/>
    </input>

    <output>
        <tripinfo-output value="SUMOFiles/RandomPolicy1Trip50m"/>
    </output>

    <time>
        <begin value="0"/>
        <end value="30"/>
    </time>

    <traci_server>
        <remote-port value="58993"/>
    </traci_server>

    <gui_only>
        <start value="true"/>
    </gui_only>

</configuration>
-->

<tripinfos xmlns:xsi="http://www.w3.org/2001/XMLSchema-instance" xsi:noNamespaceSchemaLocation="http://sumo.dlr.de/xsd/tripinfo_file.xsd">
    <tripinfo id="Car" depart="0.00" departLane="01E_0" departPos="5.10" departSpeed="0.00" departDelay="0.00" arrival="236.00" arrivalLane="11W_0" arrivalPos="189.60" arrivalSpeed="20.40" duration="236.00" routeLength="2418.25" waitingTime="2.00" waitingCount="1" stopTime="28.00" timeLoss="89.70" rerouteNo="0" devices="tripinfo_Car" vType="DEFAULT_VEHTYPE" speedFactor="1.06" vaporized=""/>
    <tripinfo id="Cara" depart="0.00" departLane="01E_1" departPos="5.10" departSpeed="0.00" departDelay="0.00" arrival="258.00" arrivalLane="11W_0" arrivalPos="189.60" arrivalSpeed="18.58" duration="258.00" routeLength="2418.25" waitingTime="10.00" waitingCount="4" stopTime="23.00" timeLoss="101.77" rerouteNo="0" devices="tripinfo_Cara" vType="DEFAULT_VEHTYPE" speedFactor="0.94" vaporized=""/>
    <tripinfo id="Car1a" depart="0.00" departLane="21W_1" departPos="5.10" departSpeed="0.00" departDelay="0.00" arrival="260.00" arrivalLane="11E_0" arrivalPos="189.60" arrivalSpeed="20.89" duration="260.00" routeLength="2418.25" waitingTime="1.00" waitingCount="1" stopTime="58.00" timeLoss="86.05" rerouteNo="0" devices="tripinfo_Car1a" vType="DEFAULT_VEHTYPE" speedFactor="1.08" vaporized=""/>
    <tripinfo id="Car1" depart="0.00" departLane="21W_0" departPos="5.10" departSpeed="0.00" departDelay="0.00" arrival="282.00" arrivalLane="11E_0" arrivalPos="189.60" arrivalSpeed="19.09" duration="282.00" routeLength="2418.25" waitingTime="20.00" waitingCount="5" stopTime="42.00" timeLoss="116.37" rerouteNo="0" devices="tripinfo_Car1" vType="DEFAULT_VEHTYPE" speedFactor="1.01" vaporized=""/>
    <tripinfo id="Car3" depart="0.00" departLane="12N_0" departPos="5.10" departSpeed="0.00" departDelay="0.00" arrival="293.00" arrivalLane="11S_0" arrivalPos="189.60" arrivalSpeed="20.19" duration="293.00" routeLength="2418.25" waitingTime="17.00" waitingCount="3" stopTime="55.00" timeLoss="118.16" rerouteNo="0" devices="tripinfo_Car3" vType="DEFAULT_VEHTYPE" speedFactor="1.05" vaporized=""/>
    <tripinfo id="Car2a" depart="0.00" departLane="10S_1" departPos="5.10" departSpeed="0.00" departDelay="0.00" arrival="299.00" arrivalLane="11N_0" arrivalPos="189.60" arrivalSpeed="16.47" duration="299.00" routeLength="2418.25" waitingTime="2.00" waitingCount="2" stopTime="75.00" timeLoss="72.24" rerouteNo="0" devices="tripinfo_Car2a" vType="DEFAULT_VEHTYPE" speedFactor="0.83" vaporized=""/>
    <tripinfo id="Car3a" depart="0.00" departLane="12N_1" departPos="5.10" departSpeed="0.00" departDelay="0.00" arrival="300.00" arrivalLane="11S_0" arrivalPos="189.60" arrivalSpeed="17.58" duration="300.00" routeLength="2418.25" waitingTime="41.00" waitingCount="4" stopTime="34.00" timeLoss="123.55" rerouteNo="0" devices="tripinfo_Car3a" vType="DEFAULT_VEHTYPE" speedFactor="0.89" vaporized=""/>
    <tripinfo id="Car2" depart="0.00" departLane="10S_0" departPos="5.10" departSpeed="0.00" departDelay="0.00" arrival="302.00" arrivalLane="11N_1" arrivalPos="189.60" arrivalSpeed="20.08" duration="302.00" routeLength="2418.25" waitingTime="57.00" waitingCount="3" stopTime="29.00" timeLoss="150.73" rerouteNo="0" devices="tripinfo_Car2" vType="DEFAULT_VEHTYPE" speedFactor="1.03" vaporized=""/>
</tripinfos>
