<?xml version="1.0" encoding="UTF-8"?>

<!-- generated on 2021-09-12 12:12:47 by Eclipse SUMO GUI Version 1.9.2
<configuration xmlns:xsi="http://www.w3.org/2001/XMLSchema-instance" xsi:noNamespaceSchemaLocation="http://sumo.dlr.de/xsd/sumoConfiguration.xsd">

    <input>
        <net-file value="SUMOFiles/sumomain.net.xml"/>
        <route-files value="SUMOFiles/sumomain.rou.xml"/>
        <additional-files value="SUMOFiles/parking.add.xml"/>
    </input>

    <output>
        <tripinfo-output value="SUMOFiles/RandomPolicy1Trip100m"/>
    </output>

    <time>
        <begin value="0"/>
        <end value="30"/>
    </time>

    <traci_server>
        <remote-port value="49763"/>
    </traci_server>

    <gui_only>
        <start value="true"/>
    </gui_only>

</configuration>
-->

<tripinfos xmlns:xsi="http://www.w3.org/2001/XMLSchema-instance" xsi:noNamespaceSchemaLocation="http://sumo.dlr.de/xsd/tripinfo_file.xsd">
    <tripinfo id="Car3" depart="0.00" departLane="12N_0" departPos="5.10" departSpeed="0.00" departDelay="0.00" arrival="345.00" arrivalLane="11S_0" arrivalPos="189.60" arrivalSpeed="20.03" duration="345.00" routeLength="2418.25" waitingTime="55.00" waitingCount="4" stopTime="65.00" timeLoss="158.86" rerouteNo="0" devices="tripinfo_Car3" vType="DEFAULT_VEHTYPE" speedFactor="1.05" vaporized=""/>
    <tripinfo id="Car2a" depart="0.00" departLane="10S_1" departPos="5.10" departSpeed="0.00" departDelay="0.00" arrival="346.00" arrivalLane="11N_0" arrivalPos="189.60" arrivalSpeed="16.49" duration="346.00" routeLength="2418.25" waitingTime="8.00" waitingCount="1" stopTime="101.00" timeLoss="92.72" rerouteNo="0" devices="tripinfo_Car2a" vType="DEFAULT_VEHTYPE" speedFactor="0.83" vaporized=""/>
    <tripinfo id="Car1a" depart="0.00" departLane="21W_1" departPos="5.10" departSpeed="0.00" departDelay="0.00" arrival="353.00" arrivalLane="11E_0" arrivalPos="189.60" arrivalSpeed="20.89" duration="353.00" routeLength="2418.25" waitingTime="28.00" waitingCount="3" stopTime="112.00" timeLoss="124.93" rerouteNo="0" devices="tripinfo_Car1a" vType="DEFAULT_VEHTYPE" speedFactor="1.08" vaporized=""/>
    <tripinfo id="Car2" depart="0.00" departLane="10S_0" departPos="5.10" departSpeed="0.00" departDelay="0.00" arrival="375.00" arrivalLane="11N_0" arrivalPos="189.60" arrivalSpeed="19.73" duration="375.00" routeLength="2418.25" waitingTime="63.00" waitingCount="4" stopTime="88.00" timeLoss="165.49" rerouteNo="0" devices="tripinfo_Car2" vType="DEFAULT_VEHTYPE" speedFactor="1.03" vaporized=""/>
    <tripinfo id="Car3a" depart="0.00" departLane="12N_1" departPos="5.10" departSpeed="0.00" departDelay="0.00" arrival="376.00" arrivalLane="11S_0" arrivalPos="189.60" arrivalSpeed="17.58" duration="376.00" routeLength="2418.25" waitingTime="51.00" waitingCount="6" stopTime="89.00" timeLoss="144.68" rerouteNo="0" devices="tripinfo_Car3a" vType="DEFAULT_VEHTYPE" speedFactor="0.89" vaporized=""/>
    <tripinfo id="Car1" depart="0.00" departLane="21W_0" departPos="5.10" departSpeed="0.00" departDelay="0.00" arrival="381.00" arrivalLane="11E_0" arrivalPos="189.60" arrivalSpeed="19.09" duration="381.00" routeLength="2418.25" waitingTime="58.00" waitingCount="5" stopTime="99.00" timeLoss="157.61" rerouteNo="0" devices="tripinfo_Car1" vType="DEFAULT_VEHTYPE" speedFactor="1.01" vaporized=""/>
    <tripinfo id="Car" depart="0.00" departLane="01E_0" departPos="5.10" departSpeed="0.00" departDelay="0.00" arrival="388.00" arrivalLane="11W_0" arrivalPos="189.60" arrivalSpeed="21.10" duration="388.00" routeLength="2418.25" waitingTime="47.00" waitingCount="6" stopTime="117.00" timeLoss="152.74" rerouteNo="0" devices="tripinfo_Car" vType="DEFAULT_VEHTYPE" speedFactor="1.06" vaporized=""/>
    <tripinfo id="Cara" depart="0.00" departLane="01E_1" departPos="5.10" departSpeed="0.00" departDelay="0.00" arrival="395.00" arrivalLane="11W_0" arrivalPos="189.60" arrivalSpeed="18.40" duration="395.00" routeLength="2418.25" waitingTime="94.00" waitingCount="6" stopTime="64.00" timeLoss="197.69" rerouteNo="0" devices="tripinfo_Cara" vType="DEFAULT_VEHTYPE" speedFactor="0.94" vaporized=""/>
</tripinfos>
