<?xml version="1.0" encoding="UTF-8"?>

<!-- generated on 2021-09-14 19:10:43 by Eclipse SUMO GUI Version 1.9.2
<configuration xmlns:xsi="http://www.w3.org/2001/XMLSchema-instance" xsi:noNamespaceSchemaLocation="http://sumo.dlr.de/xsd/sumoConfiguration.xsd">

    <input>
        <net-file value="SUMOFiles/sumomain.net.xml"/>
        <route-files value="SUMOFiles/sumomain.rou.xml"/>
    </input>

    <output>
        <tripinfo-output value="SUMOFiles/RandomPolicy3Trip"/>
    </output>

    <time>
        <begin value="0"/>
    </time>

    <traci_server>
        <remote-port value="63961"/>
    </traci_server>

    <gui_only>
        <start value="true"/>
    </gui_only>

</configuration>
-->

<tripinfos xmlns:xsi="http://www.w3.org/2001/XMLSchema-instance" xsi:noNamespaceSchemaLocation="http://sumo.dlr.de/xsd/tripinfo_file.xsd">
    <tripinfo id="Car1a" depart="3.00" departLane="21W_0" departPos="5.10" departSpeed="0.00" departDelay="3.00" arrival="293.00" arrivalLane="11E_0" arrivalPos="189.60" arrivalSpeed="21.56" duration="290.00" routeLength="2418.25" waitingTime="26.00" waitingCount="2" stopTime="52.00" timeLoss="121.06" rerouteNo="0" devices="tripinfo_Car1a" vType="DEFAULT_VEHTYPE" speedFactor="1.08" vaporized=""/>
    <tripinfo id="Car" depart="0.00" departLane="01E_0" departPos="5.10" departSpeed="0.00" departDelay="0.00" arrival="341.00" arrivalLane="11W_0" arrivalPos="189.60" arrivalSpeed="20.81" duration="341.00" routeLength="2418.25" waitingTime="54.00" waitingCount="3" stopTime="73.00" timeLoss="150.25" rerouteNo="0" devices="tripinfo_Car" vType="DEFAULT_VEHTYPE" speedFactor="1.06" vaporized=""/>
    <tripinfo id="Car2" depart="0.00" departLane="10S_0" departPos="5.10" departSpeed="0.00" departDelay="0.00" arrival="344.00" arrivalLane="11N_0" arrivalPos="189.60" arrivalSpeed="20.32" duration="344.00" routeLength="2418.25" waitingTime="76.00" waitingCount="9" stopTime="39.00" timeLoss="183.88" rerouteNo="0" devices="tripinfo_Car2" vType="DEFAULT_VEHTYPE" speedFactor="1.03" vaporized=""/>
    <tripinfo id="Cara" depart="3.00" departLane="01E_0" departPos="5.10" departSpeed="0.00" departDelay="3.00" arrival="350.00" arrivalLane="11W_0" arrivalPos="189.60" arrivalSpeed="18.58" duration="347.00" routeLength="2418.25" waitingTime="79.00" waitingCount="7" stopTime="29.00" timeLoss="183.60" rerouteNo="0" devices="tripinfo_Cara" vType="DEFAULT_VEHTYPE" speedFactor="0.94" vaporized=""/>
    <tripinfo id="Car3" depart="0.00" departLane="12N_0" departPos="5.10" departSpeed="0.00" departDelay="0.00" arrival="361.00" arrivalLane="11S_0" arrivalPos="189.60" arrivalSpeed="20.03" duration="361.00" routeLength="2418.25" waitingTime="18.00" waitingCount="4" stopTime="134.00" timeLoss="107.40" rerouteNo="0" devices="tripinfo_Car3" vType="DEFAULT_VEHTYPE" speedFactor="1.05" vaporized=""/>
    <tripinfo id="Car1" depart="0.00" departLane="21W_0" departPos="5.10" departSpeed="0.00" departDelay="0.00" arrival="365.00" arrivalLane="11E_0" arrivalPos="189.60" arrivalSpeed="19.64" duration="365.00" routeLength="2418.25" waitingTime="26.00" waitingCount="4" stopTime="123.00" timeLoss="117.65" rerouteNo="0" devices="tripinfo_Car1" vType="DEFAULT_VEHTYPE" speedFactor="1.01" vaporized=""/>
    <tripinfo id="Car2a" depart="3.00" departLane="10S_0" departPos="5.10" departSpeed="0.00" departDelay="3.00" arrival="372.00" arrivalLane="11N_0" arrivalPos="189.60" arrivalSpeed="15.74" duration="369.00" routeLength="2418.25" waitingTime="39.00" waitingCount="6" stopTime="80.00" timeLoss="138.02" rerouteNo="0" devices="tripinfo_Car2a" vType="DEFAULT_VEHTYPE" speedFactor="0.83" vaporized=""/>
    <tripinfo id="Car3a" depart="3.00" departLane="12N_0" departPos="5.10" departSpeed="0.00" departDelay="3.00" arrival="375.00" arrivalLane="11S_0" arrivalPos="189.60" arrivalSpeed="17.58" duration="372.00" routeLength="2418.25" waitingTime="90.00" waitingCount="6" stopTime="44.00" timeLoss="185.25" rerouteNo="0" devices="tripinfo_Car3a" vType="DEFAULT_VEHTYPE" speedFactor="0.89" vaporized=""/>
</tripinfos>
