<?xml version="1.0" encoding="UTF-8"?>

<!-- generated on 2021-09-12 13:28:55 by Eclipse SUMO GUI Version 1.9.2
<configuration xmlns:xsi="http://www.w3.org/2001/XMLSchema-instance" xsi:noNamespaceSchemaLocation="http://sumo.dlr.de/xsd/sumoConfiguration.xsd">

    <input>
        <net-file value="SUMOFiles/sumomain.net.xml"/>
        <route-files value="SUMOFiles/sumomain.rou.xml"/>
        <additional-files value="SUMOFiles/parking.add.xml"/>
    </input>

    <output>
        <tripinfo-output value="SUMOFiles/RandomPolicy2Trip75m"/>
    </output>

    <time>
        <begin value="0"/>
        <end value="30"/>
    </time>

    <traci_server>
        <remote-port value="53598"/>
    </traci_server>

    <gui_only>
        <start value="true"/>
    </gui_only>

</configuration>
-->

<tripinfos xmlns:xsi="http://www.w3.org/2001/XMLSchema-instance" xsi:noNamespaceSchemaLocation="http://sumo.dlr.de/xsd/tripinfo_file.xsd">
    <tripinfo id="Car" depart="0.00" departLane="01E_0" departPos="5.10" departSpeed="0.00" departDelay="0.00" arrival="311.00" arrivalLane="11W_0" arrivalPos="189.60" arrivalSpeed="20.81" duration="311.00" routeLength="2418.25" waitingTime="15.00" waitingCount="3" stopTime="82.00" timeLoss="110.23" rerouteNo="0" devices="tripinfo_Car" vType="DEFAULT_VEHTYPE" speedFactor="1.06" vaporized=""/>
    <tripinfo id="Car3" depart="0.00" departLane="12N_0" departPos="5.10" departSpeed="0.00" departDelay="0.00" arrival="324.00" arrivalLane="11S_0" arrivalPos="189.60" arrivalSpeed="20.79" duration="324.00" routeLength="2418.25" waitingTime="51.00" waitingCount="5" stopTime="60.00" timeLoss="144.28" rerouteNo="0" devices="tripinfo_Car3" vType="DEFAULT_VEHTYPE" speedFactor="1.05" vaporized=""/>
    <tripinfo id="Car2a" depart="0.00" departLane="10S_1" departPos="5.10" departSpeed="0.00" departDelay="0.00" arrival="332.00" arrivalLane="11N_0" arrivalPos="189.60" arrivalSpeed="16.49" duration="332.00" routeLength="2418.25" waitingTime="10.00" waitingCount="3" stopTime="87.00" timeLoss="92.86" rerouteNo="0" devices="tripinfo_Car2a" vType="DEFAULT_VEHTYPE" speedFactor="0.83" vaporized=""/>
    <tripinfo id="Car1a" depart="0.00" departLane="21W_1" departPos="5.10" departSpeed="0.00" departDelay="0.00" arrival="340.00" arrivalLane="11E_0" arrivalPos="189.60" arrivalSpeed="21.33" duration="340.00" routeLength="2418.25" waitingTime="60.00" waitingCount="6" stopTime="59.00" timeLoss="164.14" rerouteNo="0" devices="tripinfo_Car1a" vType="DEFAULT_VEHTYPE" speedFactor="1.08" vaporized=""/>
    <tripinfo id="Car1" depart="0.00" departLane="21W_0" departPos="5.10" departSpeed="0.00" departDelay="0.00" arrival="348.00" arrivalLane="11E_0" arrivalPos="189.60" arrivalSpeed="19.64" duration="348.00" routeLength="2418.25" waitingTime="63.00" waitingCount="7" stopTime="59.00" timeLoss="164.02" rerouteNo="0" devices="tripinfo_Car1" vType="DEFAULT_VEHTYPE" speedFactor="1.01" vaporized=""/>
    <tripinfo id="Car2" depart="0.00" departLane="10S_0" departPos="5.10" departSpeed="0.00" departDelay="0.00" arrival="351.00" arrivalLane="11N_0" arrivalPos="189.60" arrivalSpeed="20.54" duration="351.00" routeLength="2418.25" waitingTime="57.00" waitingCount="5" stopTime="65.00" timeLoss="164.34" rerouteNo="0" devices="tripinfo_Car2" vType="DEFAULT_VEHTYPE" speedFactor="1.03" vaporized=""/>
    <tripinfo id="Car3a" depart="0.00" departLane="12N_1" departPos="5.10" departSpeed="0.00" departDelay="0.00" arrival="366.00" arrivalLane="11S_0" arrivalPos="189.60" arrivalSpeed="17.58" duration="366.00" routeLength="2418.25" waitingTime="56.00" waitingCount="7" stopTime="62.00" timeLoss="162.31" rerouteNo="0" devices="tripinfo_Car3a" vType="DEFAULT_VEHTYPE" speedFactor="0.89" vaporized=""/>
    <tripinfo id="Cara" depart="0.00" departLane="01E_1" departPos="5.10" departSpeed="0.00" departDelay="0.00" arrival="372.00" arrivalLane="11W_0" arrivalPos="189.60" arrivalSpeed="18.51" duration="372.00" routeLength="2418.25" waitingTime="63.00" waitingCount="6" stopTime="85.00" timeLoss="154.02" rerouteNo="0" devices="tripinfo_Cara" vType="DEFAULT_VEHTYPE" speedFactor="0.94" vaporized=""/>
</tripinfos>
