<?xml version="1.0" encoding="UTF-8"?>

<!-- generated on 2021-09-14 19:09:37 by Eclipse SUMO GUI Version 1.9.2
<configuration xmlns:xsi="http://www.w3.org/2001/XMLSchema-instance" xsi:noNamespaceSchemaLocation="http://sumo.dlr.de/xsd/sumoConfiguration.xsd">

    <input>
        <net-file value="SUMOFiles/sumomain.net.xml"/>
        <route-files value="SUMOFiles/sumomain.rou.xml"/>
    </input>

    <output>
        <tripinfo-output value="SUMOFiles/RandomPolicy2Trip"/>
    </output>

    <time>
        <begin value="0"/>
    </time>

    <traci_server>
        <remote-port value="63874"/>
    </traci_server>

    <gui_only>
        <start value="true"/>
    </gui_only>

</configuration>
-->

<tripinfos xmlns:xsi="http://www.w3.org/2001/XMLSchema-instance" xsi:noNamespaceSchemaLocation="http://sumo.dlr.de/xsd/tripinfo_file.xsd">
    <tripinfo id="Car2" depart="0.00" departLane="10S_0" departPos="5.10" departSpeed="0.00" departDelay="0.00" arrival="307.00" arrivalLane="11N_0" arrivalPos="189.60" arrivalSpeed="20.45" duration="307.00" routeLength="2418.25" waitingTime="25.00" waitingCount="2" stopTime="68.00" timeLoss="117.80" rerouteNo="0" devices="tripinfo_Car2" vType="DEFAULT_VEHTYPE" speedFactor="1.03" vaporized=""/>
    <tripinfo id="Car3" depart="0.00" departLane="12N_0" departPos="5.10" departSpeed="0.00" departDelay="0.00" arrival="310.00" arrivalLane="11S_0" arrivalPos="189.60" arrivalSpeed="20.03" duration="310.00" routeLength="2418.25" waitingTime="6.00" waitingCount="4" stopTime="96.00" timeLoss="93.26" rerouteNo="0" devices="tripinfo_Car3" vType="DEFAULT_VEHTYPE" speedFactor="1.05" vaporized=""/>
    <tripinfo id="Car3a" depart="3.00" departLane="12N_0" departPos="5.10" departSpeed="0.00" departDelay="3.00" arrival="325.00" arrivalLane="11S_0" arrivalPos="189.60" arrivalSpeed="17.58" duration="322.00" routeLength="2418.25" waitingTime="56.00" waitingCount="2" stopTime="43.00" timeLoss="136.77" rerouteNo="0" devices="tripinfo_Car3a" vType="DEFAULT_VEHTYPE" speedFactor="0.89" vaporized=""/>
    <tripinfo id="Car2a" depart="3.00" departLane="10S_0" departPos="5.10" departSpeed="0.00" departDelay="3.00" arrival="340.00" arrivalLane="11N_0" arrivalPos="189.60" arrivalSpeed="16.02" duration="337.00" routeLength="2418.25" waitingTime="39.00" waitingCount="3" stopTime="55.00" timeLoss="129.86" rerouteNo="0" devices="tripinfo_Car2a" vType="DEFAULT_VEHTYPE" speedFactor="0.83" vaporized=""/>
    <tripinfo id="Cara" depart="3.00" departLane="01E_0" departPos="5.10" departSpeed="0.00" departDelay="3.00" arrival="381.00" arrivalLane="11W_0" arrivalPos="189.60" arrivalSpeed="18.33" duration="378.00" routeLength="2418.25" waitingTime="106.00" waitingCount="7" stopTime="39.00" timeLoss="204.56" rerouteNo="0" devices="tripinfo_Cara" vType="DEFAULT_VEHTYPE" speedFactor="0.94" vaporized=""/>
    <tripinfo id="Car1" depart="0.00" departLane="21W_0" departPos="5.10" departSpeed="0.00" departDelay="0.00" arrival="384.00" arrivalLane="11E_1" arrivalPos="189.60" arrivalSpeed="19.74" duration="384.00" routeLength="2418.25" waitingTime="52.00" waitingCount="3" stopTime="121.00" timeLoss="139.36" rerouteNo="0" devices="tripinfo_Car1" vType="DEFAULT_VEHTYPE" speedFactor="1.01" vaporized=""/>
    <tripinfo id="Car" depart="0.00" departLane="01E_0" departPos="5.10" departSpeed="0.00" departDelay="0.00" arrival="388.00" arrivalLane="11W_1" arrivalPos="189.60" arrivalSpeed="19.96" duration="388.00" routeLength="2418.25" waitingTime="53.00" waitingCount="4" stopTime="131.00" timeLoss="139.19" rerouteNo="0" devices="tripinfo_Car" vType="DEFAULT_VEHTYPE" speedFactor="1.06" vaporized=""/>
    <tripinfo id="Car1a" depart="3.00" departLane="21W_0" departPos="5.10" departSpeed="0.00" departDelay="3.00" arrival="395.00" arrivalLane="11E_1" arrivalPos="189.60" arrivalSpeed="21.24" duration="392.00" routeLength="2418.25" waitingTime="147.00" waitingCount="6" stopTime="30.00" timeLoss="246.59" rerouteNo="0" devices="tripinfo_Car1a" vType="DEFAULT_VEHTYPE" speedFactor="1.08" vaporized=""/>
</tripinfos>
