<?xml version="1.0" encoding="UTF-8"?>

<!-- generated on 2021-09-12 15:15:13 by Eclipse SUMO GUI Version 1.9.2
<configuration xmlns:xsi="http://www.w3.org/2001/XMLSchema-instance" xsi:noNamespaceSchemaLocation="http://sumo.dlr.de/xsd/sumoConfiguration.xsd">

    <input>
        <net-file value="SUMOFiles/sumomain.net.xml"/>
        <route-files value="SUMOFiles/sumomain.rou.xml"/>
        <additional-files value="SUMOFiles/parking.add.xml"/>
    </input>

    <output>
        <tripinfo-output value="SUMOFiles/RandomPolicy3Trip50m"/>
    </output>

    <time>
        <begin value="0"/>
        <end value="30"/>
    </time>

    <traci_server>
        <remote-port value="62958"/>
    </traci_server>

    <gui_only>
        <start value="true"/>
    </gui_only>

</configuration>
-->

<tripinfos xmlns:xsi="http://www.w3.org/2001/XMLSchema-instance" xsi:noNamespaceSchemaLocation="http://sumo.dlr.de/xsd/tripinfo_file.xsd">
    <tripinfo id="Car3" depart="0.00" departLane="12N_0" departPos="5.10" departSpeed="0.00" departDelay="0.00" arrival="330.00" arrivalLane="11S_0" arrivalPos="189.60" arrivalSpeed="20.03" duration="330.00" routeLength="2418.25" waitingTime="39.00" waitingCount="7" stopTime="73.00" timeLoss="136.80" rerouteNo="0" devices="tripinfo_Car3" vType="DEFAULT_VEHTYPE" speedFactor="1.05" vaporized=""/>
    <tripinfo id="Car2a" depart="0.00" departLane="10S_1" departPos="5.10" departSpeed="0.00" departDelay="0.00" arrival="338.00" arrivalLane="11N_0" arrivalPos="189.60" arrivalSpeed="16.47" duration="338.00" routeLength="2418.25" waitingTime="6.00" waitingCount="2" stopTime="101.00" timeLoss="86.11" rerouteNo="0" devices="tripinfo_Car2a" vType="DEFAULT_VEHTYPE" speedFactor="0.83" vaporized=""/>
    <tripinfo id="Car1a" depart="0.00" departLane="21W_1" departPos="5.10" departSpeed="0.00" departDelay="0.00" arrival="352.00" arrivalLane="11E_0" arrivalPos="189.60" arrivalSpeed="20.89" duration="352.00" routeLength="2418.25" waitingTime="1.00" waitingCount="1" stopTime="146.00" timeLoss="90.14" rerouteNo="0" devices="tripinfo_Car1a" vType="DEFAULT_VEHTYPE" speedFactor="1.08" vaporized=""/>
    <tripinfo id="Car2" depart="0.00" departLane="10S_0" departPos="5.10" departSpeed="0.00" departDelay="0.00" arrival="358.00" arrivalLane="11N_0" arrivalPos="189.60" arrivalSpeed="19.73" duration="358.00" routeLength="2418.25" waitingTime="76.00" waitingCount="5" stopTime="56.00" timeLoss="180.49" rerouteNo="0" devices="tripinfo_Car2" vType="DEFAULT_VEHTYPE" speedFactor="1.03" vaporized=""/>
    <tripinfo id="Car3a" depart="0.00" departLane="12N_1" departPos="5.10" departSpeed="0.00" departDelay="0.00" arrival="361.00" arrivalLane="11S_0" arrivalPos="189.60" arrivalSpeed="16.98" duration="361.00" routeLength="2418.25" waitingTime="30.00" waitingCount="4" stopTime="104.00" timeLoss="114.57" rerouteNo="0" devices="tripinfo_Car3a" vType="DEFAULT_VEHTYPE" speedFactor="0.89" vaporized=""/>
    <tripinfo id="Car" depart="0.00" departLane="01E_0" departPos="5.10" departSpeed="0.00" departDelay="0.00" arrival="365.00" arrivalLane="11W_0" arrivalPos="189.60" arrivalSpeed="20.62" duration="365.00" routeLength="2418.25" waitingTime="71.00" waitingCount="4" stopTime="64.00" timeLoss="182.46" rerouteNo="0" devices="tripinfo_Car" vType="DEFAULT_VEHTYPE" speedFactor="1.06" vaporized=""/>
    <tripinfo id="Cara" depart="0.00" departLane="01E_1" departPos="5.10" departSpeed="0.00" departDelay="0.00" arrival="373.00" arrivalLane="11W_0" arrivalPos="189.60" arrivalSpeed="18.40" duration="373.00" routeLength="2418.25" waitingTime="66.00" waitingCount="8" stopTime="68.00" timeLoss="172.51" rerouteNo="0" devices="tripinfo_Cara" vType="DEFAULT_VEHTYPE" speedFactor="0.94" vaporized=""/>
    <tripinfo id="Car1" depart="0.00" departLane="21W_0" departPos="5.10" departSpeed="0.00" departDelay="0.00" arrival="381.00" arrivalLane="11E_1" arrivalPos="189.60" arrivalSpeed="19.01" duration="381.00" routeLength="2418.25" waitingTime="111.00" waitingCount="5" stopTime="46.00" timeLoss="210.49" rerouteNo="0" devices="tripinfo_Car1" vType="DEFAULT_VEHTYPE" speedFactor="1.01" vaporized=""/>
</tripinfos>
