<?xml version="1.0" encoding="UTF-8"?>

<!-- generated on 2021-09-12 12:14:53 by Eclipse SUMO GUI Version 1.9.2
<configuration xmlns:xsi="http://www.w3.org/2001/XMLSchema-instance" xsi:noNamespaceSchemaLocation="http://sumo.dlr.de/xsd/sumoConfiguration.xsd">

    <input>
        <net-file value="SUMOFiles/sumomain.net.xml"/>
        <route-files value="SUMOFiles/sumomain.rou.xml"/>
        <additional-files value="SUMOFiles/parking.add.xml"/>
    </input>

    <output>
        <tripinfo-output value="SUMOFiles/RandomPolicy2Trip100m"/>
    </output>

    <time>
        <begin value="0"/>
        <end value="30"/>
    </time>

    <traci_server>
        <remote-port value="49867"/>
    </traci_server>

    <gui_only>
        <start value="true"/>
    </gui_only>

</configuration>
-->

<tripinfos xmlns:xsi="http://www.w3.org/2001/XMLSchema-instance" xsi:noNamespaceSchemaLocation="http://sumo.dlr.de/xsd/tripinfo_file.xsd">
    <tripinfo id="Car" depart="0.00" departLane="01E_0" departPos="5.10" departSpeed="0.00" departDelay="0.00" arrival="296.00" arrivalLane="11W_0" arrivalPos="189.60" arrivalSpeed="20.81" duration="296.00" routeLength="2418.25" waitingTime="0.00" waitingCount="0" stopTime="87.00" timeLoss="90.20" rerouteNo="0" devices="tripinfo_Car" vType="DEFAULT_VEHTYPE" speedFactor="1.06" vaporized=""/>
    <tripinfo id="Car1a" depart="0.00" departLane="21W_1" departPos="5.10" departSpeed="0.00" departDelay="0.00" arrival="303.00" arrivalLane="11E_0" arrivalPos="189.60" arrivalSpeed="21.56" duration="303.00" routeLength="2418.25" waitingTime="37.00" waitingCount="4" stopTime="49.00" timeLoss="137.72" rerouteNo="0" devices="tripinfo_Car1a" vType="DEFAULT_VEHTYPE" speedFactor="1.08" vaporized=""/>
    <tripinfo id="Car1" depart="0.00" departLane="21W_0" departPos="5.10" departSpeed="0.00" departDelay="0.00" arrival="318.00" arrivalLane="11E_0" arrivalPos="189.60" arrivalSpeed="19.64" duration="318.00" routeLength="2418.25" waitingTime="39.00" waitingCount="6" stopTime="51.00" timeLoss="142.82" rerouteNo="0" devices="tripinfo_Car1" vType="DEFAULT_VEHTYPE" speedFactor="1.01" vaporized=""/>
    <tripinfo id="Cara" depart="0.00" departLane="01E_1" departPos="5.10" departSpeed="0.00" departDelay="0.00" arrival="333.00" arrivalLane="11W_0" arrivalPos="189.60" arrivalSpeed="18.51" duration="333.00" routeLength="2418.25" waitingTime="45.00" waitingCount="5" stopTime="58.00" timeLoss="140.65" rerouteNo="0" devices="tripinfo_Cara" vType="DEFAULT_VEHTYPE" speedFactor="0.94" vaporized=""/>
    <tripinfo id="Car2a" depart="0.00" departLane="10S_1" departPos="5.10" departSpeed="0.00" departDelay="0.00" arrival="345.00" arrivalLane="11N_0" arrivalPos="189.60" arrivalSpeed="16.49" duration="345.00" routeLength="2418.25" waitingTime="77.00" waitingCount="5" stopTime="31.00" timeLoss="161.00" rerouteNo="0" devices="tripinfo_Car2a" vType="DEFAULT_VEHTYPE" speedFactor="0.83" vaporized=""/>
    <tripinfo id="Car3" depart="0.00" departLane="12N_0" departPos="5.10" departSpeed="0.00" departDelay="0.00" arrival="348.00" arrivalLane="11S_0" arrivalPos="189.60" arrivalSpeed="20.03" duration="348.00" routeLength="2418.25" waitingTime="67.00" waitingCount="3" stopTime="61.00" timeLoss="167.63" rerouteNo="0" devices="tripinfo_Car3" vType="DEFAULT_VEHTYPE" speedFactor="1.05" vaporized=""/>
    <tripinfo id="Car3a" depart="0.00" departLane="12N_1" departPos="5.10" departSpeed="0.00" departDelay="0.00" arrival="357.00" arrivalLane="11S_1" arrivalPos="189.60" arrivalSpeed="17.39" duration="357.00" routeLength="2418.25" waitingTime="29.00" waitingCount="6" stopTime="108.00" timeLoss="106.42" rerouteNo="0" devices="tripinfo_Car3a" vType="DEFAULT_VEHTYPE" speedFactor="0.89" vaporized=""/>
    <tripinfo id="Car2" depart="0.00" departLane="10S_0" departPos="5.10" departSpeed="0.00" departDelay="0.00" arrival="370.00" arrivalLane="11N_1" arrivalPos="189.60" arrivalSpeed="20.08" duration="370.00" routeLength="2418.25" waitingTime="60.00" waitingCount="3" stopTime="86.00" timeLoss="161.87" rerouteNo="0" devices="tripinfo_Car2" vType="DEFAULT_VEHTYPE" speedFactor="1.03" vaporized=""/>
</tripinfos>
