<?xml version="1.0" encoding="UTF-8"?>

<!-- generated on 2021-09-12 13:30:26 by Eclipse SUMO GUI Version 1.9.2
<configuration xmlns:xsi="http://www.w3.org/2001/XMLSchema-instance" xsi:noNamespaceSchemaLocation="http://sumo.dlr.de/xsd/sumoConfiguration.xsd">

    <input>
        <net-file value="SUMOFiles/sumomain.net.xml"/>
        <route-files value="SUMOFiles/sumomain.rou.xml"/>
        <additional-files value="SUMOFiles/parking.add.xml"/>
    </input>

    <output>
        <tripinfo-output value="SUMOFiles/RandomPolicy3Trip75m"/>
    </output>

    <time>
        <begin value="0"/>
        <end value="30"/>
    </time>

    <traci_server>
        <remote-port value="53660"/>
    </traci_server>

    <gui_only>
        <start value="true"/>
    </gui_only>

</configuration>
-->

<tripinfos xmlns:xsi="http://www.w3.org/2001/XMLSchema-instance" xsi:noNamespaceSchemaLocation="http://sumo.dlr.de/xsd/tripinfo_file.xsd">
    <tripinfo id="Car2a" depart="0.00" departLane="10S_1" departPos="5.10" departSpeed="0.00" departDelay="0.00" arrival="319.00" arrivalLane="11N_0" arrivalPos="189.60" arrivalSpeed="16.49" duration="319.00" routeLength="2418.25" waitingTime="25.00" waitingCount="4" stopTime="60.00" timeLoss="107.85" rerouteNo="0" devices="tripinfo_Car2a" vType="DEFAULT_VEHTYPE" speedFactor="0.83" vaporized=""/>
    <tripinfo id="Car3" depart="0.00" departLane="12N_0" departPos="5.10" departSpeed="0.00" departDelay="0.00" arrival="325.00" arrivalLane="11S_0" arrivalPos="189.60" arrivalSpeed="20.79" duration="325.00" routeLength="2418.25" waitingTime="19.00" waitingCount="3" stopTime="92.00" timeLoss="113.06" rerouteNo="0" devices="tripinfo_Car3" vType="DEFAULT_VEHTYPE" speedFactor="1.05" vaporized=""/>
    <tripinfo id="Car3a" depart="0.00" departLane="12N_1" departPos="5.10" departSpeed="0.00" departDelay="0.00" arrival="348.00" arrivalLane="11S_0" arrivalPos="189.60" arrivalSpeed="17.58" duration="348.00" routeLength="2418.25" waitingTime="31.00" waitingCount="4" stopTime="85.00" timeLoss="121.83" rerouteNo="0" devices="tripinfo_Car3a" vType="DEFAULT_VEHTYPE" speedFactor="0.89" vaporized=""/>
    <tripinfo id="Car2" depart="0.00" departLane="10S_0" departPos="5.10" departSpeed="0.00" departDelay="0.00" arrival="357.00" arrivalLane="11N_0" arrivalPos="189.60" arrivalSpeed="20.00" duration="357.00" routeLength="2418.25" waitingTime="20.00" waitingCount="4" stopTime="104.00" timeLoss="130.62" rerouteNo="0" devices="tripinfo_Car2" vType="DEFAULT_VEHTYPE" speedFactor="1.03" vaporized=""/>
    <tripinfo id="Car1" depart="0.00" departLane="21W_0" departPos="5.10" departSpeed="0.00" departDelay="0.00" arrival="383.00" arrivalLane="11E_0" arrivalPos="189.60" arrivalSpeed="19.44" duration="383.00" routeLength="2418.25" waitingTime="42.00" waitingCount="11" stopTime="92.00" timeLoss="166.95" rerouteNo="0" devices="tripinfo_Car1" vType="DEFAULT_VEHTYPE" speedFactor="1.01" vaporized=""/>
    <tripinfo id="Car1a" depart="0.00" departLane="21W_1" departPos="5.10" departSpeed="0.00" departDelay="0.00" arrival="394.00" arrivalLane="11E_1" arrivalPos="189.60" arrivalSpeed="21.18" duration="394.00" routeLength="2418.25" waitingTime="62.00" waitingCount="4" stopTime="140.00" timeLoss="138.51" rerouteNo="0" devices="tripinfo_Car1a" vType="DEFAULT_VEHTYPE" speedFactor="1.08" vaporized=""/>
    <tripinfo id="Car" depart="0.00" departLane="01E_0" departPos="5.10" departSpeed="0.00" departDelay="0.00" arrival="398.00" arrivalLane="11W_1" arrivalPos="189.60" arrivalSpeed="20.61" duration="398.00" routeLength="2418.25" waitingTime="134.00" waitingCount="7" stopTime="48.00" timeLoss="230.86" rerouteNo="0" devices="tripinfo_Car" vType="DEFAULT_VEHTYPE" speedFactor="1.06" vaporized=""/>
    <tripinfo id="Cara" depart="0.00" departLane="01E_1" departPos="5.10" departSpeed="0.00" departDelay="0.00" arrival="408.00" arrivalLane="11W_0" arrivalPos="189.60" arrivalSpeed="18.38" duration="408.00" routeLength="2418.25" waitingTime="144.00" waitingCount="7" stopTime="16.00" timeLoss="257.77" rerouteNo="0" devices="tripinfo_Cara" vType="DEFAULT_VEHTYPE" speedFactor="0.94" vaporized=""/>
</tripinfos>
