<?xml version="1.0" encoding="UTF-8"?>

<!-- generated on 2021-09-12 13:27:24 by Eclipse SUMO GUI Version 1.9.2
<configuration xmlns:xsi="http://www.w3.org/2001/XMLSchema-instance" xsi:noNamespaceSchemaLocation="http://sumo.dlr.de/xsd/sumoConfiguration.xsd">

    <input>
        <net-file value="SUMOFiles/sumomain.net.xml"/>
        <route-files value="SUMOFiles/sumomain.rou.xml"/>
        <additional-files value="SUMOFiles/parking.add.xml"/>
    </input>

    <output>
        <tripinfo-output value="SUMOFiles/RandomPolicy1Trip75m"/>
    </output>

    <time>
        <begin value="0"/>
        <end value="30"/>
    </time>

    <traci_server>
        <remote-port value="53535"/>
    </traci_server>

    <gui_only>
        <start value="true"/>
    </gui_only>

</configuration>
-->

<tripinfos xmlns:xsi="http://www.w3.org/2001/XMLSchema-instance" xsi:noNamespaceSchemaLocation="http://sumo.dlr.de/xsd/tripinfo_file.xsd">
    <tripinfo id="Car3" depart="0.00" departLane="12N_0" departPos="5.10" departSpeed="0.00" departDelay="0.00" arrival="295.00" arrivalLane="11S_1" arrivalPos="189.60" arrivalSpeed="19.97" duration="295.00" routeLength="2418.25" waitingTime="4.00" waitingCount="2" stopTime="75.00" timeLoss="100.08" rerouteNo="0" devices="tripinfo_Car3" vType="DEFAULT_VEHTYPE" speedFactor="1.05" vaporized=""/>
    <tripinfo id="Car2a" depart="0.00" departLane="10S_1" departPos="5.10" departSpeed="0.00" departDelay="0.00" arrival="325.00" arrivalLane="11N_0" arrivalPos="189.60" arrivalSpeed="16.26" duration="325.00" routeLength="2418.25" waitingTime="50.00" waitingCount="5" stopTime="45.00" timeLoss="127.79" rerouteNo="0" devices="tripinfo_Car2a" vType="DEFAULT_VEHTYPE" speedFactor="0.83" vaporized=""/>
    <tripinfo id="Car2" depart="0.00" departLane="10S_0" departPos="5.10" departSpeed="0.00" departDelay="0.00" arrival="337.00" arrivalLane="11N_0" arrivalPos="189.60" arrivalSpeed="20.00" duration="337.00" routeLength="2418.25" waitingTime="43.00" waitingCount="5" stopTime="53.00" timeLoss="162.43" rerouteNo="0" devices="tripinfo_Car2" vType="DEFAULT_VEHTYPE" speedFactor="1.03" vaporized=""/>
    <tripinfo id="Car" depart="0.00" departLane="01E_0" departPos="5.10" departSpeed="0.00" departDelay="0.00" arrival="341.00" arrivalLane="11W_0" arrivalPos="189.60" arrivalSpeed="20.81" duration="341.00" routeLength="2418.25" waitingTime="26.00" waitingCount="3" stopTime="100.00" timeLoss="122.84" rerouteNo="0" devices="tripinfo_Car" vType="DEFAULT_VEHTYPE" speedFactor="1.06" vaporized=""/>
    <tripinfo id="Car1a" depart="0.00" departLane="21W_1" departPos="5.10" departSpeed="0.00" departDelay="0.00" arrival="355.00" arrivalLane="11E_0" arrivalPos="189.60" arrivalSpeed="21.29" duration="355.00" routeLength="2418.25" waitingTime="81.00" waitingCount="5" stopTime="62.00" timeLoss="177.58" rerouteNo="0" devices="tripinfo_Car1a" vType="DEFAULT_VEHTYPE" speedFactor="1.08" vaporized=""/>
    <tripinfo id="Car3a" depart="0.00" departLane="12N_1" departPos="5.10" departSpeed="0.00" departDelay="0.00" arrival="364.00" arrivalLane="11S_0" arrivalPos="189.60" arrivalSpeed="17.59" duration="364.00" routeLength="2418.25" waitingTime="32.00" waitingCount="1" stopTime="106.00" timeLoss="115.78" rerouteNo="0" devices="tripinfo_Car3a" vType="DEFAULT_VEHTYPE" speedFactor="0.89" vaporized=""/>
    <tripinfo id="Cara" depart="0.00" departLane="01E_1" departPos="5.10" departSpeed="0.00" departDelay="0.00" arrival="369.00" arrivalLane="11W_0" arrivalPos="189.60" arrivalSpeed="18.40" duration="369.00" routeLength="2418.25" waitingTime="38.00" waitingCount="4" stopTime="110.00" timeLoss="125.71" rerouteNo="0" devices="tripinfo_Cara" vType="DEFAULT_VEHTYPE" speedFactor="0.94" vaporized=""/>
    <tripinfo id="Car1" depart="0.00" departLane="21W_0" departPos="5.10" departSpeed="0.00" departDelay="0.00" arrival="371.00" arrivalLane="11E_0" arrivalPos="189.60" arrivalSpeed="20.02" duration="371.00" routeLength="2418.25" waitingTime="53.00" waitingCount="4" stopTime="89.00" timeLoss="158.20" rerouteNo="0" devices="tripinfo_Car1" vType="DEFAULT_VEHTYPE" speedFactor="1.01" vaporized=""/>
</tripinfos>
